LAMMPS data file

3528 atoms
2 atom types

0.0 61.432 xlo xhi
0.0 61.432 ylo yhi
0.0 36.357 zlo zhi

Atoms

1 2 4.388000 1.438994 3.627195
2 2 0.000000 2.949006 9.686695
3 2 4.388000 0.346918 5.860042
4 2 0.000000 4.041082 11.919542
5 2 1.623517 2.350882 6.266584
6 2 7.152483 2.350882 6.266584
7 2 2.764483 2.037118 0.207084
8 2 6.011517 2.037118 0.207084
9 2 0.000000 5.826994 3.627195
10 2 4.388000 7.337006 9.686695
11 2 0.000000 4.734918 5.860042
12 2 4.388000 8.429082 11.919542
13 2 6.011517 6.738882 6.266584
14 2 2.764483 6.738882 6.266584
15 2 7.152483 6.425118 0.207084
16 2 1.623517 6.425118 0.207084
17 1 4.388000 1.451000 5.334638
18 1 0.000000 2.937000 11.394138
19 1 0.000000 2.917857 6.844811
20 1 4.388000 1.470143 0.785311
21 1 0.000000 5.839000 5.334638
22 1 4.388000 7.325000 11.394138
23 1 4.388000 7.305857 6.844811
24 1 0.000000 5.858143 0.785311
25 2 4.388000 1.438994 15.746195
26 2 0.000000 2.949006 21.805695
27 2 4.388000 0.346918 17.979042
28 2 0.000000 4.041082 24.038542
29 2 1.623517 2.350882 18.385584
30 2 7.152483 2.350882 18.385584
31 2 2.764483 2.037118 12.326084
32 2 6.011517 2.037118 12.326084
33 2 0.000000 5.826994 15.746195
34 2 4.388000 7.337006 21.805695
35 2 0.000000 4.734918 17.979042
36 2 4.388000 8.429082 24.038542
37 2 6.011517 6.738882 18.385584
38 2 2.764483 6.738882 18.385584
39 2 7.152483 6.425118 12.326084
40 2 1.623517 6.425118 12.326084
41 1 4.388000 1.451000 17.453638
42 1 0.000000 2.937000 23.513138
43 1 0.000000 2.917857 18.963811
44 1 4.388000 1.470143 12.904311
45 1 0.000000 5.839000 17.453638
46 1 4.388000 7.325000 23.513138
47 1 4.388000 7.305857 18.963811
48 1 0.000000 5.858143 12.904311
49 2 4.388000 1.438994 27.865195
50 2 0.000000 2.949006 33.924695
51 2 4.388000 0.346918 30.098042
52 2 0.000000 4.041082 36.157542
53 2 1.623517 2.350882 30.504584
54 2 7.152483 2.350882 30.504584
55 2 2.764483 2.037118 24.445084
56 2 6.011517 2.037118 24.445084
57 2 0.000000 5.826994 27.865195
58 2 4.388000 7.337006 33.924695
59 2 0.000000 4.734918 30.098042
60 2 4.388000 8.429082 36.157542
61 2 6.011517 6.738882 30.504584
62 2 2.764483 6.738882 30.504584
63 2 7.152483 6.425118 24.445084
64 2 1.623517 6.425118 24.445084
65 1 4.388000 1.451000 29.572638
66 1 0.000000 2.937000 35.632138
67 1 0.000000 2.917857 31.082811
68 1 4.388000 1.470143 25.023311
69 1 0.000000 5.839000 29.572638
70 1 4.388000 7.325000 35.632138
71 1 4.388000 7.305857 31.082811
72 1 0.000000 5.858143 25.023311
73 2 4.388000 10.214994 3.627195
74 2 0.000000 11.725006 9.686695
75 2 4.388000 9.122918 5.860042
76 2 0.000000 12.817082 11.919542
77 2 1.623517 11.126882 6.266584
78 2 7.152483 11.126882 6.266584
79 2 2.764483 10.813118 0.207084
80 2 6.011517 10.813118 0.207084
81 2 0.000000 14.602994 3.627195
82 2 4.388000 16.113006 9.686695
83 2 0.000000 13.510918 5.860042
84 2 4.388000 17.205082 11.919542
85 2 6.011517 15.514882 6.266584
86 2 2.764483 15.514882 6.266584
87 2 7.152483 15.201118 0.207084
88 2 1.623517 15.201118 0.207084
89 1 4.388000 10.227000 5.334638
90 1 0.000000 11.713000 11.394138
91 1 0.000000 11.693857 6.844811
92 1 4.388000 10.246143 0.785311
93 1 0.000000 14.615000 5.334638
94 1 4.388000 16.101000 11.394138
95 1 4.388000 16.081857 6.844811
96 1 0.000000 14.634143 0.785311
97 2 4.388000 10.214994 15.746195
98 2 0.000000 11.725006 21.805695
99 2 4.388000 9.122918 17.979042
100 2 0.000000 12.817082 24.038542
101 2 1.623517 11.126882 18.385584
102 2 7.152483 11.126882 18.385584
103 2 2.764483 10.813118 12.326084
104 2 6.011517 10.813118 12.326084
105 2 0.000000 14.602994 15.746195
106 2 4.388000 16.113006 21.805695
107 2 0.000000 13.510918 17.979042
108 2 4.388000 17.205082 24.038542
109 2 6.011517 15.514882 18.385584
110 2 2.764483 15.514882 18.385584
111 2 7.152483 15.201118 12.326084
112 2 1.623517 15.201118 12.326084
113 1 4.388000 10.227000 17.453638
114 1 0.000000 11.713000 23.513138
115 1 0.000000 11.693857 18.963811
116 1 4.388000 10.246143 12.904311
117 1 0.000000 14.615000 17.453638
118 1 4.388000 16.101000 23.513138
119 1 4.388000 16.081857 18.963811
120 1 0.000000 14.634143 12.904311
121 2 4.388000 10.214994 27.865195
122 2 0.000000 11.725006 33.924695
123 2 4.388000 9.122918 30.098042
124 2 0.000000 12.817082 36.157542
125 2 1.623517 11.126882 30.504584
126 2 7.152483 11.126882 30.504584
127 2 2.764483 10.813118 24.445084
128 2 6.011517 10.813118 24.445084
129 2 0.000000 14.602994 27.865195
130 2 4.388000 16.113006 33.924695
131 2 0.000000 13.510918 30.098042
132 2 4.388000 17.205082 36.157542
133 2 6.011517 15.514882 30.504584
134 2 2.764483 15.514882 30.504584
135 2 7.152483 15.201118 24.445084
136 2 1.623517 15.201118 24.445084
137 1 4.388000 10.227000 29.572638
138 1 0.000000 11.713000 35.632138
139 1 0.000000 11.693857 31.082811
140 1 4.388000 10.246143 25.023311
141 1 0.000000 14.615000 29.572638
142 1 4.388000 16.101000 35.632138
143 1 4.388000 16.081857 31.082811
144 1 0.000000 14.634143 25.023311
145 2 4.388000 18.990994 3.627195
146 2 0.000000 20.501006 9.686695
147 2 4.388000 17.898918 5.860042
148 2 0.000000 21.593082 11.919542
149 2 1.623517 19.902882 6.266584
150 2 7.152483 19.902882 6.266584
151 2 2.764483 19.589118 0.207084
152 2 6.011517 19.589118 0.207084
153 2 0.000000 23.378994 3.627195
154 2 4.388000 24.889006 9.686695
155 2 0.000000 22.286918 5.860042
156 2 4.388000 25.981082 11.919542
157 2 6.011517 24.290882 6.266584
158 2 2.764483 24.290882 6.266584
159 2 7.152483 23.977118 0.207084
160 2 1.623517 23.977118 0.207084
161 1 4.388000 19.003000 5.334638
162 1 0.000000 20.489000 11.394138
163 1 0.000000 20.469857 6.844811
164 1 4.388000 19.022143 0.785311
165 1 0.000000 23.391000 5.334638
166 1 4.388000 24.877000 11.394138
167 1 4.388000 24.857857 6.844811
168 1 0.000000 23.410143 0.785311
169 2 4.388000 18.990994 15.746195
170 2 0.000000 20.501006 21.805695
171 2 4.388000 17.898918 17.979042
172 2 0.000000 21.593082 24.038542
173 2 1.623517 19.902882 18.385584
174 2 7.152483 19.902882 18.385584
175 2 2.764483 19.589118 12.326084
176 2 6.011517 19.589118 12.326084
177 2 0.000000 23.378994 15.746195
178 2 4.388000 24.889006 21.805695
179 2 0.000000 22.286918 17.979042
180 2 4.388000 25.981082 24.038542
181 2 6.011517 24.290882 18.385584
182 2 2.764483 24.290882 18.385584
183 2 7.152483 23.977118 12.326084
184 2 1.623517 23.977118 12.326084
185 1 4.388000 19.003000 17.453638
186 1 0.000000 20.489000 23.513138
187 1 0.000000 20.469857 18.963811
188 1 4.388000 19.022143 12.904311
189 1 0.000000 23.391000 17.453638
190 1 4.388000 24.877000 23.513138
191 1 4.388000 24.857857 18.963811
192 1 0.000000 23.410143 12.904311
193 2 4.388000 18.990994 27.865195
194 2 0.000000 20.501006 33.924695
195 2 4.388000 17.898918 30.098042
196 2 0.000000 21.593082 36.157542
197 2 1.623517 19.902882 30.504584
198 2 7.152483 19.902882 30.504584
199 2 2.764483 19.589118 24.445084
200 2 6.011517 19.589118 24.445084
201 2 0.000000 23.378994 27.865195
202 2 4.388000 24.889006 33.924695
203 2 0.000000 22.286918 30.098042
204 2 4.388000 25.981082 36.157542
205 2 6.011517 24.290882 30.504584
206 2 2.764483 24.290882 30.504584
207 2 7.152483 23.977118 24.445084
208 2 1.623517 23.977118 24.445084
209 1 4.388000 19.003000 29.572638
210 1 0.000000 20.489000 35.632138
211 1 0.000000 20.469857 31.082811
212 1 4.388000 19.022143 25.023311
213 1 0.000000 23.391000 29.572638
214 1 4.388000 24.877000 35.632138
215 1 4.388000 24.857857 31.082811
216 1 0.000000 23.410143 25.023311
217 2 4.388000 27.766994 3.627195
218 2 0.000000 29.277006 9.686695
219 2 4.388000 26.674918 5.860042
220 2 0.000000 30.369082 11.919542
221 2 1.623517 28.678882 6.266584
222 2 7.152483 28.678882 6.266584
223 2 2.764483 28.365118 0.207084
224 2 6.011517 28.365118 0.207084
225 2 0.000000 32.154994 3.627195
226 2 4.388000 33.665006 9.686695
227 2 0.000000 31.062918 5.860042
228 2 4.388000 34.757082 11.919542
229 2 6.011517 33.066882 6.266584
230 2 2.764483 33.066882 6.266584
231 2 7.152483 32.753118 0.207084
232 2 1.623517 32.753118 0.207084
233 1 4.388000 27.779000 5.334638
234 1 0.000000 29.265000 11.394138
235 1 0.000000 29.245857 6.844811
236 1 4.388000 27.798143 0.785311
237 1 0.000000 32.167000 5.334638
238 1 4.388000 33.653000 11.394138
239 1 4.388000 33.633857 6.844811
240 1 0.000000 32.186143 0.785311
241 2 4.388000 27.766994 15.746195
242 2 0.000000 29.277006 21.805695
243 2 4.388000 26.674918 17.979042
244 2 0.000000 30.369082 24.038542
245 2 1.623517 28.678882 18.385584
246 2 7.152483 28.678882 18.385584
247 2 2.764483 28.365118 12.326084
248 2 6.011517 28.365118 12.326084
249 2 0.000000 32.154994 15.746195
250 2 4.388000 33.665006 21.805695
251 2 0.000000 31.062918 17.979042
252 2 4.388000 34.757082 24.038542
253 2 6.011517 33.066882 18.385584
254 2 2.764483 33.066882 18.385584
255 2 7.152483 32.753118 12.326084
256 2 1.623517 32.753118 12.326084
257 1 4.388000 27.779000 17.453638
258 1 0.000000 29.265000 23.513138
259 1 0.000000 29.245857 18.963811
260 1 4.388000 27.798143 12.904311
261 1 0.000000 32.167000 17.453638
262 1 4.388000 33.653000 23.513138
263 1 4.388000 33.633857 18.963811
264 1 0.000000 32.186143 12.904311
265 2 4.388000 27.766994 27.865195
266 2 0.000000 29.277006 33.924695
267 2 4.388000 26.674918 30.098042
268 2 0.000000 30.369082 36.157542
269 2 1.623517 28.678882 30.504584
270 2 7.152483 28.678882 30.504584
271 2 2.764483 28.365118 24.445084
272 2 6.011517 28.365118 24.445084
273 2 0.000000 32.154994 27.865195
274 2 4.388000 33.665006 33.924695
275 2 0.000000 31.062918 30.098042
276 2 4.388000 34.757082 36.157542
277 2 6.011517 33.066882 30.504584
278 2 2.764483 33.066882 30.504584
279 2 7.152483 32.753118 24.445084
280 2 1.623517 32.753118 24.445084
281 1 4.388000 27.779000 29.572638
282 1 0.000000 29.265000 35.632138
283 1 0.000000 29.245857 31.082811
284 1 4.388000 27.798143 25.023311
285 1 0.000000 32.167000 29.572638
286 1 4.388000 33.653000 35.632138
287 1 4.388000 33.633857 31.082811
288 1 0.000000 32.186143 25.023311
289 2 4.388000 36.542994 3.627195
290 2 0.000000 38.053006 9.686695
291 2 4.388000 35.450918 5.860042
292 2 0.000000 39.145082 11.919542
293 2 1.623517 37.454882 6.266584
294 2 7.152483 37.454882 6.266584
295 2 2.764483 37.141118 0.207084
296 2 6.011517 37.141118 0.207084
297 2 0.000000 40.930994 3.627195
298 2 4.388000 42.441006 9.686695
299 2 0.000000 39.838918 5.860042
300 2 4.388000 43.533082 11.919542
301 2 6.011517 41.842882 6.266584
302 2 2.764483 41.842882 6.266584
303 2 7.152483 41.529118 0.207084
304 2 1.623517 41.529118 0.207084
305 1 4.388000 36.555000 5.334638
306 1 0.000000 38.041000 11.394138
307 1 0.000000 38.021857 6.844811
308 1 4.388000 36.574143 0.785311
309 1 0.000000 40.943000 5.334638
310 1 4.388000 42.429000 11.394138
311 1 4.388000 42.409857 6.844811
312 1 0.000000 40.962143 0.785311
313 2 4.388000 36.542994 15.746195
314 2 0.000000 38.053006 21.805695
315 2 4.388000 35.450918 17.979042
316 2 0.000000 39.145082 24.038542
317 2 1.623517 37.454882 18.385584
318 2 7.152483 37.454882 18.385584
319 2 2.764483 37.141118 12.326084
320 2 6.011517 37.141118 12.326084
321 2 0.000000 40.930994 15.746195
322 2 4.388000 42.441006 21.805695
323 2 0.000000 39.838918 17.979042
324 2 4.388000 43.533082 24.038542
325 2 6.011517 41.842882 18.385584
326 2 2.764483 41.842882 18.385584
327 2 7.152483 41.529118 12.326084
328 2 1.623517 41.529118 12.326084
329 1 4.388000 36.555000 17.453638
330 1 0.000000 38.041000 23.513138
331 1 0.000000 38.021857 18.963811
332 1 4.388000 36.574143 12.904311
333 1 0.000000 40.943000 17.453638
334 1 4.388000 42.429000 23.513138
335 1 4.388000 42.409857 18.963811
336 1 0.000000 40.962143 12.904311
337 2 4.388000 36.542994 27.865195
338 2 0.000000 38.053006 33.924695
339 2 4.388000 35.450918 30.098042
340 2 0.000000 39.145082 36.157542
341 2 1.623517 37.454882 30.504584
342 2 7.152483 37.454882 30.504584
343 2 2.764483 37.141118 24.445084
344 2 6.011517 37.141118 24.445084
345 2 0.000000 40.930994 27.865195
346 2 4.388000 42.441006 33.924695
347 2 0.000000 39.838918 30.098042
348 2 4.388000 43.533082 36.157542
349 2 6.011517 41.842882 30.504584
350 2 2.764483 41.842882 30.504584
351 2 7.152483 41.529118 24.445084
352 2 1.623517 41.529118 24.445084
353 1 4.388000 36.555000 29.572638
354 1 0.000000 38.041000 35.632138
355 1 0.000000 38.021857 31.082811
356 1 4.388000 36.574143 25.023311
357 1 0.000000 40.943000 29.572638
358 1 4.388000 42.429000 35.632138
359 1 4.388000 42.409857 31.082811
360 1 0.000000 40.962143 25.023311
361 2 4.388000 45.318994 3.627195
362 2 0.000000 46.829006 9.686695
363 2 4.388000 44.226918 5.860042
364 2 0.000000 47.921082 11.919542
365 2 1.623517 46.230882 6.266584
366 2 7.152483 46.230882 6.266584
367 2 2.764483 45.917118 0.207084
368 2 6.011517 45.917118 0.207084
369 2 0.000000 49.706994 3.627195
370 2 4.388000 51.217006 9.686695
371 2 0.000000 48.614918 5.860042
372 2 4.388000 52.309082 11.919542
373 2 6.011517 50.618882 6.266584
374 2 2.764483 50.618882 6.266584
375 2 7.152483 50.305118 0.207084
376 2 1.623517 50.305118 0.207084
377 1 4.388000 45.331000 5.334638
378 1 0.000000 46.817000 11.394138
379 1 0.000000 46.797857 6.844811
380 1 4.388000 45.350143 0.785311
381 1 0.000000 49.719000 5.334638
382 1 4.388000 51.205000 11.394138
383 1 4.388000 51.185857 6.844811
384 1 0.000000 49.738143 0.785311
385 2 4.388000 45.318994 15.746195
386 2 0.000000 46.829006 21.805695
387 2 4.388000 44.226918 17.979042
388 2 0.000000 47.921082 24.038542
389 2 1.623517 46.230882 18.385584
390 2 7.152483 46.230882 18.385584
391 2 2.764483 45.917118 12.326084
392 2 6.011517 45.917118 12.326084
393 2 0.000000 49.706994 15.746195
394 2 4.388000 51.217006 21.805695
395 2 0.000000 48.614918 17.979042
396 2 4.388000 52.309082 24.038542
397 2 6.011517 50.618882 18.385584
398 2 2.764483 50.618882 18.385584
399 2 7.152483 50.305118 12.326084
400 2 1.623517 50.305118 12.326084
401 1 4.388000 45.331000 17.453638
402 1 0.000000 46.817000 23.513138
403 1 0.000000 46.797857 18.963811
404 1 4.388000 45.350143 12.904311
405 1 0.000000 49.719000 17.453638
406 1 4.388000 51.205000 23.513138
407 1 4.388000 51.185857 18.963811
408 1 0.000000 49.738143 12.904311
409 2 4.388000 45.318994 27.865195
410 2 0.000000 46.829006 33.924695
411 2 4.388000 44.226918 30.098042
412 2 0.000000 47.921082 36.157542
413 2 1.623517 46.230882 30.504584
414 2 7.152483 46.230882 30.504584
415 2 2.764483 45.917118 24.445084
416 2 6.011517 45.917118 24.445084
417 2 0.000000 49.706994 27.865195
418 2 4.388000 51.217006 33.924695
419 2 0.000000 48.614918 30.098042
420 2 4.388000 52.309082 36.157542
421 2 6.011517 50.618882 30.504584
422 2 2.764483 50.618882 30.504584
423 2 7.152483 50.305118 24.445084
424 2 1.623517 50.305118 24.445084
425 1 4.388000 45.331000 29.572638
426 1 0.000000 46.817000 35.632138
427 1 0.000000 46.797857 31.082811
428 1 4.388000 45.350143 25.023311
429 1 0.000000 49.719000 29.572638
430 1 4.388000 51.205000 35.632138
431 1 4.388000 51.185857 31.082811
432 1 0.000000 49.738143 25.023311
433 2 4.388000 54.094994 3.627195
434 2 0.000000 55.605006 9.686695
435 2 4.388000 53.002918 5.860042
436 2 0.000000 56.697082 11.919542
437 2 1.623517 55.006882 6.266584
438 2 7.152483 55.006882 6.266584
439 2 2.764483 54.693118 0.207084
440 2 6.011517 54.693118 0.207084
441 2 0.000000 58.482994 3.627195
442 2 4.388000 59.993006 9.686695
443 2 0.000000 57.390918 5.860042
444 2 4.388000 61.085082 11.919542
445 2 6.011517 59.394882 6.266584
446 2 2.764483 59.394882 6.266584
447 2 7.152483 59.081118 0.207084
448 2 1.623517 59.081118 0.207084
449 1 4.388000 54.107000 5.334638
450 1 0.000000 55.593000 11.394138
451 1 0.000000 55.573857 6.844811
452 1 4.388000 54.126143 0.785311
453 1 0.000000 58.495000 5.334638
454 1 4.388000 59.981000 11.394138
455 1 4.388000 59.961857 6.844811
456 1 0.000000 58.514143 0.785311
457 2 4.388000 54.094994 15.746195
458 2 0.000000 55.605006 21.805695
459 2 4.388000 53.002918 17.979042
460 2 0.000000 56.697082 24.038542
461 2 1.623517 55.006882 18.385584
462 2 7.152483 55.006882 18.385584
463 2 2.764483 54.693118 12.326084
464 2 6.011517 54.693118 12.326084
465 2 0.000000 58.482994 15.746195
466 2 4.388000 59.993006 21.805695
467 2 0.000000 57.390918 17.979042
468 2 4.388000 61.085082 24.038542
469 2 6.011517 59.394882 18.385584
470 2 2.764483 59.394882 18.385584
471 2 7.152483 59.081118 12.326084
472 2 1.623517 59.081118 12.326084
473 1 4.388000 54.107000 17.453638
474 1 0.000000 55.593000 23.513138
475 1 0.000000 55.573857 18.963811
476 1 4.388000 54.126143 12.904311
477 1 0.000000 58.495000 17.453638
478 1 4.388000 59.981000 23.513138
479 1 4.388000 59.961857 18.963811
480 1 0.000000 58.514143 12.904311
481 2 4.388000 54.094994 27.865195
482 2 0.000000 55.605006 33.924695
483 2 4.388000 53.002918 30.098042
484 2 0.000000 56.697082 36.157542
485 2 1.623517 55.006882 30.504584
486 2 7.152483 55.006882 30.504584
487 2 2.764483 54.693118 24.445084
488 2 6.011517 54.693118 24.445084
489 2 0.000000 58.482994 27.865195
490 2 4.388000 59.993006 33.924695
491 2 0.000000 57.390918 30.098042
492 2 4.388000 61.085082 36.157542
493 2 6.011517 59.394882 30.504584
494 2 2.764483 59.394882 30.504584
495 2 7.152483 59.081118 24.445084
496 2 1.623517 59.081118 24.445084
497 1 4.388000 54.107000 29.572638
498 1 0.000000 55.593000 35.632138
499 1 0.000000 55.573857 31.082811
500 1 4.388000 54.126143 25.023311
501 1 0.000000 58.495000 29.572638
502 1 4.388000 59.981000 35.632138
503 1 4.388000 59.961857 31.082811
504 1 0.000000 58.514143 25.023311
505 2 13.164000 1.438994 3.627195
506 2 8.776000 2.949006 9.686695
507 2 13.164000 0.346918 5.860042
508 2 8.776000 4.041082 11.919542
509 2 10.399517 2.350882 6.266584
510 2 15.928483 2.350882 6.266584
511 2 11.540483 2.037118 0.207084
512 2 14.787517 2.037118 0.207084
513 2 8.776000 5.826994 3.627195
514 2 13.164000 7.337006 9.686695
515 2 8.776000 4.734918 5.860042
516 2 13.164000 8.429082 11.919542
517 2 14.787517 6.738882 6.266584
518 2 11.540483 6.738882 6.266584
519 2 15.928483 6.425118 0.207084
520 2 10.399517 6.425118 0.207084
521 1 13.164000 1.451000 5.334638
522 1 8.776000 2.937000 11.394138
523 1 8.776000 2.917857 6.844811
524 1 13.164000 1.470143 0.785311
525 1 8.776000 5.839000 5.334638
526 1 13.164000 7.325000 11.394138
527 1 13.164000 7.305857 6.844811
528 1 8.776000 5.858143 0.785311
529 2 13.164000 1.438994 15.746195
530 2 8.776000 2.949006 21.805695
531 2 13.164000 0.346918 17.979042
532 2 8.776000 4.041082 24.038542
533 2 10.399517 2.350882 18.385584
534 2 15.928483 2.350882 18.385584
535 2 11.540483 2.037118 12.326084
536 2 14.787517 2.037118 12.326084
537 2 8.776000 5.826994 15.746195
538 2 13.164000 7.337006 21.805695
539 2 8.776000 4.734918 17.979042
540 2 13.164000 8.429082 24.038542
541 2 14.787517 6.738882 18.385584
542 2 11.540483 6.738882 18.385584
543 2 15.928483 6.425118 12.326084
544 2 10.399517 6.425118 12.326084
545 1 13.164000 1.451000 17.453638
546 1 8.776000 2.937000 23.513138
547 1 8.776000 2.917857 18.963811
548 1 13.164000 1.470143 12.904311
549 1 8.776000 5.839000 17.453638
550 1 13.164000 7.325000 23.513138
551 1 13.164000 7.305857 18.963811
552 1 8.776000 5.858143 12.904311
553 2 13.164000 1.438994 27.865195
554 2 8.776000 2.949006 33.924695
555 2 13.164000 0.346918 30.098042
556 2 8.776000 4.041082 36.157542
557 2 10.399517 2.350882 30.504584
558 2 15.928483 2.350882 30.504584
559 2 11.540483 2.037118 24.445084
560 2 14.787517 2.037118 24.445084
561 2 8.776000 5.826994 27.865195
562 2 13.164000 7.337006 33.924695
563 2 8.776000 4.734918 30.098042
564 2 13.164000 8.429082 36.157542
565 2 14.787517 6.738882 30.504584
566 2 11.540483 6.738882 30.504584
567 2 15.928483 6.425118 24.445084
568 2 10.399517 6.425118 24.445084
569 1 13.164000 1.451000 29.572638
570 1 8.776000 2.937000 35.632138
571 1 8.776000 2.917857 31.082811
572 1 13.164000 1.470143 25.023311
573 1 8.776000 5.839000 29.572638
574 1 13.164000 7.325000 35.632138
575 1 13.164000 7.305857 31.082811
576 1 8.776000 5.858143 25.023311
577 2 13.164000 10.214994 3.627195
578 2 8.776000 11.725006 9.686695
579 2 13.164000 9.122918 5.860042
580 2 8.776000 12.817082 11.919542
581 2 10.399517 11.126882 6.266584
582 2 15.928483 11.126882 6.266584
583 2 11.540483 10.813118 0.207084
584 2 14.787517 10.813118 0.207084
585 2 8.776000 14.602994 3.627195
586 2 13.164000 16.113006 9.686695
587 2 8.776000 13.510918 5.860042
588 2 13.164000 17.205082 11.919542
589 2 14.787517 15.514882 6.266584
590 2 11.540483 15.514882 6.266584
591 2 15.928483 15.201118 0.207084
592 2 10.399517 15.201118 0.207084
593 1 13.164000 10.227000 5.334638
594 1 8.776000 11.713000 11.394138
595 1 8.776000 11.693857 6.844811
596 1 13.164000 10.246143 0.785311
597 1 8.776000 14.615000 5.334638
598 1 13.164000 16.101000 11.394138
599 1 13.164000 16.081857 6.844811
600 1 8.776000 14.634143 0.785311
601 2 13.164000 10.214994 15.746195
602 2 8.776000 11.725006 21.805695
603 2 13.164000 9.122918 17.979042
604 2 8.776000 12.817082 24.038542
605 2 10.399517 11.126882 18.385584
606 2 15.928483 11.126882 18.385584
607 2 11.540483 10.813118 12.326084
608 2 14.787517 10.813118 12.326084
609 2 8.776000 14.602994 15.746195
610 2 13.164000 16.113006 21.805695
611 2 8.776000 13.510918 17.979042
612 2 13.164000 17.205082 24.038542
613 2 14.787517 15.514882 18.385584
614 2 11.540483 15.514882 18.385584
615 2 15.928483 15.201118 12.326084
616 2 10.399517 15.201118 12.326084
617 1 13.164000 10.227000 17.453638
618 1 8.776000 11.713000 23.513138
619 1 8.776000 11.693857 18.963811
620 1 13.164000 10.246143 12.904311
621 1 8.776000 14.615000 17.453638
622 1 13.164000 16.101000 23.513138
623 1 13.164000 16.081857 18.963811
624 1 8.776000 14.634143 12.904311
625 2 13.164000 10.214994 27.865195
626 2 8.776000 11.725006 33.924695
627 2 13.164000 9.122918 30.098042
628 2 8.776000 12.817082 36.157542
629 2 10.399517 11.126882 30.504584
630 2 15.928483 11.126882 30.504584
631 2 11.540483 10.813118 24.445084
632 2 14.787517 10.813118 24.445084
633 2 8.776000 14.602994 27.865195
634 2 13.164000 16.113006 33.924695
635 2 8.776000 13.510918 30.098042
636 2 13.164000 17.205082 36.157542
637 2 14.787517 15.514882 30.504584
638 2 11.540483 15.514882 30.504584
639 2 15.928483 15.201118 24.445084
640 2 10.399517 15.201118 24.445084
641 1 13.164000 10.227000 29.572638
642 1 8.776000 11.713000 35.632138
643 1 8.776000 11.693857 31.082811
644 1 13.164000 10.246143 25.023311
645 1 8.776000 14.615000 29.572638
646 1 13.164000 16.101000 35.632138
647 1 13.164000 16.081857 31.082811
648 1 8.776000 14.634143 25.023311
649 2 13.164000 18.990994 3.627195
650 2 8.776000 20.501006 9.686695
651 2 13.164000 17.898918 5.860042
652 2 8.776000 21.593082 11.919542
653 2 10.399517 19.902882 6.266584
654 2 15.928483 19.902882 6.266584
655 2 11.540483 19.589118 0.207084
656 2 14.787517 19.589118 0.207084
657 2 8.776000 23.378994 3.627195
658 2 13.164000 24.889006 9.686695
659 2 8.776000 22.286918 5.860042
660 2 13.164000 25.981082 11.919542
661 2 14.787517 24.290882 6.266584
662 2 11.540483 24.290882 6.266584
663 2 15.928483 23.977118 0.207084
664 2 10.399517 23.977118 0.207084
665 1 13.164000 19.003000 5.334638
666 1 8.776000 20.489000 11.394138
667 1 8.776000 20.469857 6.844811
668 1 13.164000 19.022143 0.785311
669 1 8.776000 23.391000 5.334638
670 1 13.164000 24.877000 11.394138
671 1 13.164000 24.857857 6.844811
672 1 8.776000 23.410143 0.785311
673 2 13.164000 18.990994 15.746195
674 2 8.776000 20.501006 21.805695
675 2 13.164000 17.898918 17.979042
676 2 8.776000 21.593082 24.038542
677 2 10.399517 19.902882 18.385584
678 2 15.928483 19.902882 18.385584
679 2 11.540483 19.589118 12.326084
680 2 14.787517 19.589118 12.326084
681 2 8.776000 23.378994 15.746195
682 2 13.164000 24.889006 21.805695
683 2 8.776000 22.286918 17.979042
684 2 13.164000 25.981082 24.038542
685 2 14.787517 24.290882 18.385584
686 2 11.540483 24.290882 18.385584
687 2 15.928483 23.977118 12.326084
688 2 10.399517 23.977118 12.326084
689 1 13.164000 19.003000 17.453638
690 1 8.776000 20.489000 23.513138
691 1 8.776000 20.469857 18.963811
692 1 13.164000 19.022143 12.904311
693 1 8.776000 23.391000 17.453638
694 1 13.164000 24.877000 23.513138
695 1 13.164000 24.857857 18.963811
696 1 8.776000 23.410143 12.904311
697 2 13.164000 18.990994 27.865195
698 2 8.776000 20.501006 33.924695
699 2 13.164000 17.898918 30.098042
700 2 8.776000 21.593082 36.157542
701 2 10.399517 19.902882 30.504584
702 2 15.928483 19.902882 30.504584
703 2 11.540483 19.589118 24.445084
704 2 14.787517 19.589118 24.445084
705 2 8.776000 23.378994 27.865195
706 2 13.164000 24.889006 33.924695
707 2 8.776000 22.286918 30.098042
708 2 13.164000 25.981082 36.157542
709 2 14.787517 24.290882 30.504584
710 2 11.540483 24.290882 30.504584
711 2 15.928483 23.977118 24.445084
712 2 10.399517 23.977118 24.445084
713 1 13.164000 19.003000 29.572638
714 1 8.776000 20.489000 35.632138
715 1 8.776000 20.469857 31.082811
716 1 13.164000 19.022143 25.023311
717 1 8.776000 23.391000 29.572638
718 1 13.164000 24.877000 35.632138
719 1 13.164000 24.857857 31.082811
720 1 8.776000 23.410143 25.023311
721 2 13.164000 27.766994 3.627195
722 2 8.776000 29.277006 9.686695
723 2 13.164000 26.674918 5.860042
724 2 8.776000 30.369082 11.919542
725 2 10.399517 28.678882 6.266584
726 2 15.928483 28.678882 6.266584
727 2 11.540483 28.365118 0.207084
728 2 14.787517 28.365118 0.207084
729 2 8.776000 32.154994 3.627195
730 2 13.164000 33.665006 9.686695
731 2 8.776000 31.062918 5.860042
732 2 13.164000 34.757082 11.919542
733 2 14.787517 33.066882 6.266584
734 2 11.540483 33.066882 6.266584
735 2 15.928483 32.753118 0.207084
736 2 10.399517 32.753118 0.207084
737 1 13.164000 27.779000 5.334638
738 1 8.776000 29.265000 11.394138
739 1 8.776000 29.245857 6.844811
740 1 13.164000 27.798143 0.785311
741 1 8.776000 32.167000 5.334638
742 1 13.164000 33.653000 11.394138
743 1 13.164000 33.633857 6.844811
744 1 8.776000 32.186143 0.785311
745 2 13.164000 27.766994 15.746195
746 2 8.776000 29.277006 21.805695
747 2 13.164000 26.674918 17.979042
748 2 8.776000 30.369082 24.038542
749 2 10.399517 28.678882 18.385584
750 2 15.928483 28.678882 18.385584
751 2 11.540483 28.365118 12.326084
752 2 14.787517 28.365118 12.326084
753 2 8.776000 32.154994 15.746195
754 2 13.164000 33.665006 21.805695
755 2 8.776000 31.062918 17.979042
756 2 13.164000 34.757082 24.038542
757 2 14.787517 33.066882 18.385584
758 2 11.540483 33.066882 18.385584
759 2 15.928483 32.753118 12.326084
760 2 10.399517 32.753118 12.326084
761 1 13.164000 27.779000 17.453638
762 1 8.776000 29.265000 23.513138
763 1 8.776000 29.245857 18.963811
764 1 13.164000 27.798143 12.904311
765 1 8.776000 32.167000 17.453638
766 1 13.164000 33.653000 23.513138
767 1 13.164000 33.633857 18.963811
768 1 8.776000 32.186143 12.904311
769 2 13.164000 27.766994 27.865195
770 2 8.776000 29.277006 33.924695
771 2 13.164000 26.674918 30.098042
772 2 8.776000 30.369082 36.157542
773 2 10.399517 28.678882 30.504584
774 2 15.928483 28.678882 30.504584
775 2 11.540483 28.365118 24.445084
776 2 14.787517 28.365118 24.445084
777 2 8.776000 32.154994 27.865195
778 2 13.164000 33.665006 33.924695
779 2 8.776000 31.062918 30.098042
780 2 13.164000 34.757082 36.157542
781 2 14.787517 33.066882 30.504584
782 2 11.540483 33.066882 30.504584
783 2 15.928483 32.753118 24.445084
784 2 10.399517 32.753118 24.445084
785 1 13.164000 27.779000 29.572638
786 1 8.776000 29.265000 35.632138
787 1 8.776000 29.245857 31.082811
788 1 13.164000 27.798143 25.023311
789 1 8.776000 32.167000 29.572638
790 1 13.164000 33.653000 35.632138
791 1 13.164000 33.633857 31.082811
792 1 8.776000 32.186143 25.023311
793 2 13.164000 36.542994 3.627195
794 2 8.776000 38.053006 9.686695
795 2 13.164000 35.450918 5.860042
796 2 8.776000 39.145082 11.919542
797 2 10.399517 37.454882 6.266584
798 2 15.928483 37.454882 6.266584
799 2 11.540483 37.141118 0.207084
800 2 14.787517 37.141118 0.207084
801 2 8.776000 40.930994 3.627195
802 2 13.164000 42.441006 9.686695
803 2 8.776000 39.838918 5.860042
804 2 13.164000 43.533082 11.919542
805 2 14.787517 41.842882 6.266584
806 2 11.540483 41.842882 6.266584
807 2 15.928483 41.529118 0.207084
808 2 10.399517 41.529118 0.207084
809 1 13.164000 36.555000 5.334638
810 1 8.776000 38.041000 11.394138
811 1 8.776000 38.021857 6.844811
812 1 13.164000 36.574143 0.785311
813 1 8.776000 40.943000 5.334638
814 1 13.164000 42.429000 11.394138
815 1 13.164000 42.409857 6.844811
816 1 8.776000 40.962143 0.785311
817 2 13.164000 36.542994 15.746195
818 2 8.776000 38.053006 21.805695
819 2 13.164000 35.450918 17.979042
820 2 8.776000 39.145082 24.038542
821 2 10.399517 37.454882 18.385584
822 2 15.928483 37.454882 18.385584
823 2 11.540483 37.141118 12.326084
824 2 14.787517 37.141118 12.326084
825 2 8.776000 40.930994 15.746195
826 2 13.164000 42.441006 21.805695
827 2 8.776000 39.838918 17.979042
828 2 13.164000 43.533082 24.038542
829 2 14.787517 41.842882 18.385584
830 2 11.540483 41.842882 18.385584
831 2 15.928483 41.529118 12.326084
832 2 10.399517 41.529118 12.326084
833 1 13.164000 36.555000 17.453638
834 1 8.776000 38.041000 23.513138
835 1 8.776000 38.021857 18.963811
836 1 13.164000 36.574143 12.904311
837 1 8.776000 40.943000 17.453638
838 1 13.164000 42.429000 23.513138
839 1 13.164000 42.409857 18.963811
840 1 8.776000 40.962143 12.904311
841 2 13.164000 36.542994 27.865195
842 2 8.776000 38.053006 33.924695
843 2 13.164000 35.450918 30.098042
844 2 8.776000 39.145082 36.157542
845 2 10.399517 37.454882 30.504584
846 2 15.928483 37.454882 30.504584
847 2 11.540483 37.141118 24.445084
848 2 14.787517 37.141118 24.445084
849 2 8.776000 40.930994 27.865195
850 2 13.164000 42.441006 33.924695
851 2 8.776000 39.838918 30.098042
852 2 13.164000 43.533082 36.157542
853 2 14.787517 41.842882 30.504584
854 2 11.540483 41.842882 30.504584
855 2 15.928483 41.529118 24.445084
856 2 10.399517 41.529118 24.445084
857 1 13.164000 36.555000 29.572638
858 1 8.776000 38.041000 35.632138
859 1 8.776000 38.021857 31.082811
860 1 13.164000 36.574143 25.023311
861 1 8.776000 40.943000 29.572638